//mumax 3.11.1 [linux_amd64 go1.22.4(gc) CUDA-12.9]
//commit hash: ee077035
//CPU info: 12th Gen Intel(R) Core(TM) i7-12650H, Cores: 10, MHz: 400.000
//GPU info: NVIDIA GeForce RTX 4050 Laptop GPU(5770MB), CUDA Driver 12.9, cc=8.9, using cc=89 PTX
//OS  info: Ubuntu 22.04.5 LTS, Hostname: santiago-Thin
//Timestamp: 2025-08-28 22:29:53
//(c) Arne Vansteenkiste, Dynamat LAB, Ghent University, Belgium
//This is free software without any warranty. See license.txt
//********************************************************************//
//  If you use mumax in any work or publication,                      //
//  we kindly ask you to cite the references in references.bib        //
//********************************************************************//
//output directory: ./mumax_files/demo.out/
SetGridsize(50, 50, 1)
SetCellsize(2e-9, 2e-9, 1e-9)
Msat = 580e3
Aex = 15e-12
alpha = 0.3
gammaLL = 2.211e5
Dind = 3e-1
Ku1 = 0.8e6
anisU = vector(0, 0, 1)
B_ext = vector(0, 0, 0.4)
m = RandomMag()
Minimize()
SaveAs(m, "final.ovf")
//********************************************************************//
//Please cite the following references, relevant for your simulation. //
//See bibtex file in output folder for justification.                 //
//********************************************************************//
//   * Exl et al., J. Appl. Phys. 115, 17D118 (2014).
//   * Mulkers et al., Phys. Rev. B 95, 144401 (2017).
//   * Vansteenkiste et al., AIP Adv. 4, 107133 (2014).
